<?xml version="1.0"?>
<VTKFile type="UnstructuredGrid" version="0.1" byte_order="LittleEndian">
  <UnstructuredGrid>
    <FieldData>
      <DataArray type="String" Name="part_lookup" NumberOfTuples="1" format="ascii">1:InP substrate | 2:n-InP buffer | 3:n-InP lower cladding | 4:Lower SCH waveguide | 5:MQW active region | 6:Upper SCH waveguide | 7:p-InP ridge and cladding | 8:left etched p-InP shoulder | 9:right etched p-InP shoulder | 10:left SiN isolation | 11:right SiN isolation | 12:top p-metal stripe | 13:backside n-metal | 14:high-reflection rear facet | 15:anti-reflection output facet</DataArray>
      <DataArray type="String" Name="material_lookup" NumberOfTuples="1" format="ascii">1:InP substrate | 2:n-InP buffer | 3:n-InP cladding | 4:InGaAsP lower SCH | 5:InGaAsP MQW active | 6:InGaAsP upper SCH | 7:p-InP ridge/cladding | 8:SiN dielectric | 9:Au p-contact | 10:Ti/Pt/Au n-contact | 11:HR facet coating | 12:AR/output facet coating</DataArray>
    </FieldData>
    <Piece NumberOfPoints="120" NumberOfCells="15">
      <Points>
        <DataArray type="Float64" Name="Points" NumberOfComponents="3" format="ascii">
          -150 -125 0
150 -125 0
150 125 0
-150 125 0
-150 -125 1200
150 -125 1200
150 125 1200
-150 125 1200
-150 -125 1200
150 -125 1200
150 125 1200
-150 125 1200
-150 -125 1224
150 -125 1224
150 125 1224
-150 125 1224
-150 -125 1224
150 -125 1224
150 125 1224
-150 125 1224
-150 -125 1242
150 -125 1242
150 125 1242
-150 125 1242
-150 -125 1242
150 -125 1242
150 125 1242
-150 125 1242
-150 -125 1245
150 -125 1245
150 125 1245
-150 125 1245
-150 -125 1245
150 -125 1245
150 125 1245
-150 125 1245
-150 -125 1245.96
150 -125 1245.96
150 125 1245.96
-150 125 1245.96
-150 -125 1245.96
150 -125 1245.96
150 125 1245.96
-150 125 1245.96
-150 -125 1248.96
150 -125 1248.96
150 125 1248.96
-150 125 1248.96
-150 -1.5 1248.96
150 -1.5 1248.96
150 1.5 1248.96
-150 1.5 1248.96
-150 -1.5 1269.96
150 -1.5 1269.96
150 1.5 1269.96
-150 1.5 1269.96
-150 -125 1248.96
150 -125 1248.96
150 -1.5 1248.96
-150 -1.5 1248.96
-150 -125 1255.56
150 -125 1255.56
150 -1.5 1255.56
-150 -1.5 1255.56
-150 1.5 1248.96
150 1.5 1248.96
150 125 1248.96
-150 125 1248.96
-150 1.5 1255.56
150 1.5 1255.56
150 125 1255.56
-150 125 1255.56
-150 -123.5 1255.56
150 -123.5 1255.56
150 -3 1255.56
-150 -3 1255.56
-150 -123.5 1258.56
150 -123.5 1258.56
150 -3 1258.56
-150 -3 1258.56
-150 3 1255.56
150 3 1255.56
150 123.5 1255.56
-150 123.5 1255.56
-150 3 1258.56
150 3 1258.56
150 123.5 1258.56
-150 123.5 1258.56
-150 -2.4 1269.96
150 -2.4 1269.96
150 2.4 1269.96
-150 2.4 1269.96
-150 -2.4 1272.96
150 -2.4 1272.96
150 2.4 1272.96
-150 2.4 1272.96
-150 -125 -3
150 -125 -3
150 125 -3
-150 125 -3
-150 -125 0
150 -125 0
150 125 0
-150 125 0
-150.08 -125 0
-150 -125 0
-150 125 0
-150.08 125 0
-150.08 -125 1275.96
-150 -125 1275.96
-150 125 1275.96
-150.08 125 1275.96
150 -125 0
150.08 -125 0
150.08 125 0
150 125 0
150 -125 1275.96
150.08 -125 1275.96
150.08 125 1275.96
150 125 1275.96
        </DataArray>
      </Points>
      <Cells>
        <DataArray type="Int32" Name="connectivity" format="ascii">0 1 2 3 4 5 6 7 8 9 10 11 12 13 14 15 16 17 18 19 20 21 22 23 24 25 26 27 28 29 30 31 32 33 34 35 36 37 38 39 40 41 42 43 44 45 46 47 48 49 50 51 52 53 54 55 56 57 58 59 60 61 62 63 64 65 66 67 68 69 70 71 72 73 74 75 76 77 78 79 80 81 82 83 84 85 86 87 88 89 90 91 92 93 94 95 96 97 98 99 100 101 102 103 104 105 106 107 108 109 110 111 112 113 114 115 116 117 118 119</DataArray>
        <DataArray type="Int32" Name="offsets" format="ascii">8 16 24 32 40 48 56 64 72 80 88 96 104 112 120</DataArray>
        <DataArray type="UInt8" Name="types" format="ascii">12 12 12 12 12 12 12 12 12 12 12 12 12 12 12</DataArray>
      </Cells>
      <CellData>
        <DataArray type="Int32" Name="part_id" format="ascii">1 2 3 4 5 6 7 8 9 10 11 12 13 14 15</DataArray>
        <DataArray type="Int32" Name="material_id" format="ascii">1 2 3 4 5 6 7 7 7 8 8 9 10 11 12</DataArray>
        <DataArray type="Int32" Name="layer_order" format="ascii">1 2 3 4 5 6 7 8 9 10 11 12 13 14 15</DataArray>
        <DataArray type="Float64" Name="physical_thickness_um" format="ascii">100.0 2.0 1.5 0.25 0.08 0.25 1.75 0.55 0.55 0.25 0.25 0.25 0.25 106.33 106.33</DataArray>
      </CellData>
    </Piece>
  </UnstructuredGrid>
</VTKFile>
